#------------------------------------------------------------------------------
#$Date: 2016-02-16 12:49:47 +0000 (Tue, 16 Feb 2016) $
#$Revision: 176465 $
#$URL: svn://www.crystallography.net/cod/cif/9/00/96/9009667.cif $
#------------------------------------------------------------------------------
#
# This file is available in the Crystallography Open Database (COD),
# http://www.crystallography.net/. The original data for this entry
# were provided the American Mineralogist Crystal Structure Database,
# http://rruff.geo.arizona.edu/AMS/amcsd.php
#
# The file may be used within the scientific community so long as
# proper attribution is given to the journal article from which the
# data were obtained.
#
data_9009667
loop_
_publ_author_name
'Sitepu, H.'
'O'Connor B H'
'Li, D.'
_publ_section_title
;
 Comparative evaluation of the March and generalized spherical harmonic
 preferred orientation models using X-ray diffraction data for molybdite
 and calcite powders
 Note: March model
 Locality: synthetic
;
_journal_name_full               'Journal of Applied Crystallography'
_journal_page_first              158
_journal_page_last               167
_journal_paper_doi               10.1107/S0021889804031231
_journal_volume                  38
_journal_year                    2005
_chemical_formula_sum            'C Ca O3'
_chemical_name_mineral           Calcite
_space_group_IT_number           167
_symmetry_space_group_name_Hall  '-R 3 2"c'
_symmetry_space_group_name_H-M   'R -3 c :H'
_cell_angle_alpha                90
_cell_angle_beta                 90
_cell_angle_gamma                120
_cell_length_a                   4.991
_cell_length_b                   4.991
_cell_length_c                   17.068
_cell_volume                     368.204
_exptl_crystal_density_diffrn    2.708
_cod_original_sg_symbol_H-M      'R -3 c'
_cod_original_formula_sum        'Ca C O3'
_cod_database_code               9009667
loop_
_symmetry_equiv_pos_as_xyz
x,y,z
2/3+x,1/3+y,1/3+z
1/3+x,2/3+y,2/3+z
x,x-y,1/2+z
2/3+x,1/3+x-y,5/6+z
1/3+x,2/3+x-y,1/6+z
y,x,1/2-z
2/3+y,1/3+x,5/6-z
1/3+y,2/3+x,1/6-z
-x+y,y,1/2+z
2/3-x+y,1/3+y,5/6+z
1/3-x+y,2/3+y,1/6+z
-x,-x+y,1/2-z
2/3-x,1/3-x+y,5/6-z
1/3-x,2/3-x+y,1/6-z
-y,-x,1/2+z
2/3-y,1/3-x,5/6+z
1/3-y,2/3-x,1/6+z
x-y,-y,1/2-z
2/3+x-y,1/3-y,5/6-z
1/3+x-y,2/3-y,1/6-z
y,-x+y,-z
2/3+y,1/3-x+y,1/3-z
1/3+y,2/3-x+y,2/3-z
-x+y,-x,z
2/3-x+y,1/3-x,1/3+z
1/3-x+y,2/3-x,2/3+z
-x,-y,-z
2/3-x,1/3-y,1/3-z
1/3-x,2/3-y,2/3-z
-y,x-y,z
2/3-y,1/3+x-y,1/3+z
1/3-y,2/3+x-y,2/3+z
x-y,x,-z
2/3+x-y,1/3+x,1/3-z
1/3+x-y,2/3+x,2/3-z
loop_
_atom_site_label
_atom_site_fract_x
_atom_site_fract_y
_atom_site_fract_z
_atom_site_U_iso_or_equiv
Ca 0.00000 0.00000 0.00000 0.01550
C 0.00000 0.00000 0.25000 0.01771
O 0.24500 0.00000 0.25000 0.01771
