data_cif_Carlsbergite
_audit_creation_date              'October 16, 2017, 1:12 PM'
_audit_creation_method            'MDI-Jade (2010)'

_chemical_name_common
;
Carlsbergite
;
_chemical_formula_sum             CrN

_publ_section_references
;
Acta Cryst B33 (1977) 3010, Nasr Eddine, M., Bertaut, E.F., Roubin, M.,
Paris, J.
;
_publ_section_comment
;
See also PDF 11-0065, ICSD 37412, 41827. [Carlsbergite.csf]
;

_symmetry_cell_setting            Cubic
_symmetry_space_group_name_H-M    F m -3 m
_symmetry_Int_Tables_number       225

_cell_length_a                    4.148
_cell_length_b                    4.148
_cell_length_c                    4.148
_cell_angle_alpha                 90.0
_cell_angle_beta                  90.0
_cell_angle_gamma                 90.0
_cell_volume                      71.37
_cell_formula_units_Z             4.0

loop_
 _atom_site_label
 _atom_site_type_symbol
 _atom_site_symmetry_multiplicity
 _atom_site_occupancy
 _atom_site_fract_x
 _atom_site_fract_y
 _atom_site_fract_z
 _atom_site_B_iso_or_equiv
 _atom_site_thermal_displace_type
 Cr1  Cr+3 4   1.0   0.0      0.0      0.0      0.5      Biso
 N1   N-3  4   1.0   0.5      0.5      0.5      0.5      Biso
